# vtk DataFile Version 3.0
Scalar Field Data
ASCII
DATASET STRUCTURED_POINTS
DIMENSIONS 11 11 1
ORIGIN 0 0 0
SPACING 0.1 0.1 1
POINT_DATA 121
SCALARS scalars double
LOOKUP_TABLE default
0
0
0
0
0
0
0
0
0
0
0
0
0.36826
0.604393
0.798595
0.856451
0.80006
0.607883
0.375107
0.28561
0.305207
0
0
0.595857
0.977928
1.29215
1.38577
1.29452
0.983575
0.606937
0.462127
0.493835
0
0
0.595857
0.977928
1.29215
1.38577
1.29452
0.983575
0.606937
0.462127
0.493835
0
0
0.36826
0.604393
0.798595
0.856451
0.80006
0.607883
0.375107
0.28561
0.305207
0
0
3.31074e-19
1.42089e-17
-4.76515e-18
-4.76515e-18
2.29904e-17
1.42089e-17
2.96041e-33
2.96041e-33
2.29904e-17
0
0
-0.36826
-0.604393
-0.798595
-0.856451
-0.80006
-0.607883
-0.375107
-0.28561
-0.305207
0
0
-0.595857
-0.977928
-1.29215
-1.38577
-1.29452
-0.983575
-0.606937
-0.462127
-0.493835
0
0
-0.595857
-0.977928
-1.29215
-1.38577
-1.29452
-0.983575
-0.606937
-0.462127
-0.493835
0
0
-0.36826
-0.604393
-0.798595
-0.856451
-0.80006
-0.607883
-0.375107
-0.28561
-0.305207
0
0
0
0
0
0
0
0
0
0
0
0
