# vtk DataFile Version 3.0
Scalar Field Data
ASCII
DATASET STRUCTURED_POINTS
DIMENSIONS 11 11 1
ORIGIN 0 0 0
SPACING 0.1 0.1 1
POINT_DATA 121
SCALARS scalars double
LOOKUP_TABLE default
0
0
0
0
0
0
0
0
0
0
0
0
0.36826
0.604393
0.798595
0.856451
0.80006
0.607883
0.375108
0.285611
0.305207
0
0
0.595857
0.977929
1.29215
1.38577
1.29452
0.983576
0.606937
0.462128
0.493835
0
0
0.595857
0.977929
1.29215
1.38577
1.29452
0.983576
0.606937
0.462128
0.493835
0
0
0.36826
0.604393
0.798595
0.856451
0.80006
0.607883
0.375108
0.285611
0.305207
0
0
1.42089e-17
1.42089e-17
-3.25207e-17
2.29904e-17
-4.76515e-18
1.42089e-17
-1.38778e-17
2.96041e-33
9.11263e-18
0
0
-0.36826
-0.604393
-0.798595
-0.856451
-0.80006
-0.607883
-0.375108
-0.285611
-0.305207
0
0
-0.595857
-0.977929
-1.29215
-1.38577
-1.29452
-0.983576
-0.606937
-0.462128
-0.493835
0
0
-0.595857
-0.977929
-1.29215
-1.38577
-1.29452
-0.983576
-0.606937
-0.462128
-0.493835
0
0
-0.36826
-0.604393
-0.798595
-0.856451
-0.80006
-0.607883
-0.375108
-0.285611
-0.305207
0
0
0
0
0
0
0
0
0
0
0
0
